TITLE = "FEFLOW GRID"
VARIABLES = "X","Y","Z","MP"
ZONE T = "ZONE  1 at 3.6500000000e+02",
	N =       4914, E =       7680,
	ZONETYPE= FEBRICK,
	DATAPACKING= BLOCK,
	SOLUTIONTIME= 0,
	VARLOCATION= ([1-3]=NODAL,[4]=CELLCENTERED)
5.3990377130e+01
2.9644006085e+01
2.1599118262e+01
3.5783525740e+01
6.5422586143e+01
9.2097740506e+01
9.5061646546e+01
7.3255766392e+01
5.7165990745e+01
5.3990377130e+01
6.8174784609e+01
7.2408936095e+01
6.0765019508e+01
4.0652799949e+01
5.2296716536e+01
4.1817191608e+01
6.9952913856e+01
6.1941299898e+01
6.6035816856e+01
6.9063849232e+01
6.6586977802e+01
6.1082580870e+01
6.5797051845e+01
6.4628682739e+01
6.7075812869e+01
6.4148006308e+01
5.7377698319e+01
6.1579785808e+01
6.3496781835e+01
6.4329344692e+01
6.3675998655e+01
5.9071358914e+01
5.9745746419e+01
6.1871031341e+01
6.4737221198e+01
6.6401733674e+01
6.6656795287e+01
6.3500702743e+01
5.7202436602e+01
6.0983043172e+01
5.9050500849e+01
5.9135154591e+01
6.3034977421e+01
6.1256874950e+01
5.5684037725e+01
5.7369758361e+01
5.8876043711e+01
5.9848955965e+01
5.2586620228e+01
6.2855631805e+01
6.1385512969e+01
5.5517247946e+01
5.7536479000e+01
5.5575500279e+01
4.7903784369e+01
5.9309529935e+01
5.6628628473e+01
5.8756180425e+01
5.4101285858e+01
5.1819548011e+01
5.5763428065e+01
5.4458194894e+01
4.6566481935e+01
5.3159119294e+01
5.4516562074e+01
5.0947080750e+01
5.2910151765e+01
5.0507460604e+01
4.9425432559e+01
5.2702158863e+01
5.1569385711e+01
4.7149574676e+01
4.9767070706e+01
4.9452421843e+01
4.7499799878e+01
4.9541948121e+01
4.4860487988e+01
4.3851677646e+01
4.7055620615e+01
5.5578183938e+01
4.4535008783e+01
3.5730598846e+01
4.8290658633e+01
3.8773895227e+01
5.0535919453e+01
4.0426099053e+01
4.0295543417e+01
4.1116663958e+01
4.8468166552e+01
4.3954012792e+01
4.7779720007e+01
4.5907937234e+01
4.3514869369e+01
4.4734785767e+01
4.1857512232e+01
3.8580546044e+01
3.5927917581e+01
3.7902538201e+01
3.9352302149e+01
5.4784280534e+01
4.1504203959e+01
2.5621562173e+01
4.2360918722e+01
5.4387328832e+01
5.1598903601e+01
5.2477504273e+01
5.0471214291e+01
5.5181232236e+01
5.0180332960e+01
5.2908331654e+01
4.6364821263e+01
3.3220635853e+01
4.1956001949e+01
3.7760982004e+01
4.4927459170e+01
3.9440852479e+01
4.5554720459e+01
4.2949848329e+01
3.6036673939e+01
3.7238439734e+01
3.2705541401e+01
3.5192571760e+01
2.7632784129e+01
3.2390528208e+01
2.8638395107e+01
3.0221435041e+01
2.9956243282e+01
2.6627173151e+01
3.0585515735e+01
3.1210931202e+01
2.8519781315e+01
3.4964927780e+01
3.4826437837e+01
3.2687302466e+01
3.1165654275e+01
3.3577774735e+01
3.4208950656e+01
4.3728263858e+01
4.4205670791e+01
3.9326559823e+01
4.7605930254e+01
4.1544872325e+01
3.9750695547e+01
4.6386059925e+01
4.5172315324e+01
4.5922927934e+01
4.4921585254e+01
4.2136204589e+01
4.7284019126e+01
5.1753632941e+01
5.2353280208e+01
4.9086790012e+01
4.9758302263e+01
4.4050323789e+01
4.3395561906e+01
4.4657188915e+01
4.3210974335e+01
4.1607580132e+01
4.2263807502e+01
4.1220227737e+01
4.2580783553e+01
4.1660663304e+01
4.1003599930e+01
4.0877605404e+01
3.9312280772e+01
4.1129106847e+01
4.1308310821e+01
4.0497139722e+01
4.1509572529e+01
4.0794613388e+01
4.1006574251e+01
4.1192917643e+01
4.0785902148e+01
4.0435084619e+01
4.1386921625e+01
4.0962764476e+01
4.0246994550e+01
4.0670743340e+01
4.0622472419e+01
4.1770759685e+01
4.1003154421e+01
4.0815821764e+01
4.0719538984e+01
4.0874487790e+01
4.1328167113e+01
4.0049844729e+01
4.0778776674e+01
4.1205601092e+01
4.1140450898e+01
4.1219061562e+01
4.1253147719e+01
4.1099144530e+01
4.0944515507e+01
4.1099602459e+01
4.0870322249e+01
4.1030097783e+01
4.0787981392e+01
4.0877510684e+01
4.0721872370e+01
4.1045233047e+01
4.0311459090e+01
4.0547700723e+01
4.0551605289e+01
4.0334157738e+01
4.0476927383e+01
4.1144861826e+01
4.1470170777e+01
4.1436242548e+01
4.1264492998e+01
4.0588237911e+01
4.0302990517e+01
4.0661438110e+01
4.0449526478e+01
4.0490743703e+01
4.0270317490e+01
4.0086563131e+01
4.0087874430e+01
4.0739788963e+01
4.0147155785e+01
4.0184792038e+01
3.9440584430e+01
4.1069883462e+01
4.0702575705e+01
3.9964344588e+01
4.0135107580e+01
4.0298375466e+01
3.9606040579e+01
4.0457517473e+01
3.9857974294e+01
3.9775039910e+01
4.1116290614e+01
4.0899930834e+01
4.1289633248e+01
4.0682641335e+01
4.0459371435e+01
4.0086059109e+01
4.0872260816e+01
4.0946353761e+01
4.1247822985e+01
4.0935162291e+01
4.0887530557e+01
4.0406337732e+01
4.0233984216e+01
4.0084915628e+01
4.0262127008e+01
3.9878851771e+01
4.1579607688e+01
4.0463906317e+01
3.9608972210e+01
4.1850123177e+01
4.1509303494e+01
3.9854559387e+01
3.9591202026e+01
3.9869203660e+01
4.1174817627e+01
4.0212031164e+01
4.0455941958e+01
3.8955194616e+01
3.9760592690e+01
4.1959703071e+01
4.1483971685e+01
4.1594084864e+01
4.0538126332e+01
4.0301159044e+01
3.9885812137e+01
4.0140668759e+01
3.9249797572e+01
4.1685283159e+01
4.1834444146e+01
4.1728142409e+01
4.1793300758e+01
4.2282696294e+01
4.2151165498e+01
4.1957454198e+01
4.0449186519e+01
4.0120682551e+01
3.9174301362e+01
4.1509740832e+01
3.9390544678e+01
3.9997046046e+01
4.0467455418e+01
3.9489553465e+01
3.9579382529e+01
4.1878375399e+01
4.2153190931e+01
4.2187419990e+01
4.0331274893e+01
4.0067873869e+01
3.9461877773e+01
4.1495446740e+01
4.0410865976e+01
3.9256697090e+01
3.9693339553e+01
4.2837381286e+01
4.2181249732e+01
3.9799029670e+01
4.1414399719e+01
3.9497673837e+01
4.2550610413e+01
3.8674351871e+01
4.2380612049e+01
4.2048525113e+01
4.1909822930e+01
4.2057542097e+01
4.0749187482e+01
3.8474716671e+01
3.8764664736e+01
3.9111299776e+01
4.2291519649e+01
4.2786450717e+01
4.1014078272e+01
4.1117461853e+01
3.8980082994e+01
3.9300212095e+01
3.9102917124e+01
3.9358670177e+01
3.9324346393e+01
3.9502721678e+01
3.9594672071e+01
4.2707604173e+01
4.2946768638e+01
4.3528288140e+01
3.9882971439e+01
3.9089927483e+01
4.2391401456e+01
4.0772310963e+01
3.7192349752e+01
3.8609417384e+01
3.8875119793e+01
3.9986710396e+01
4.0551293137e+01
3.7982234401e+01
3.8421435416e+01
3.7717603947e+01
3.8840758994e+01
3.8452389034e+01
3.8058674995e+01
4.1896334295e+01
2.8691322001e+01
3.8197428248e+01
3.9781528793e+01
3.7369845255e+01
4.4680725970e+01
3.7197098886e+01
4.3851536159e+01
4.0895197506e+01
4.3310060106e+01
3.8860864728e+01
3.5507189032e+01
4.5156580921e+01
4.4151956943e+01
4.1673624818e+01
4.2321645798e+01
3.5716576499e+01
4.1542692098e+01
3.4779329736e+01
4.0609430062e+01
3.2959030150e+01
3.4758707963e+01
5.1414699021e+01
4.7083054672e+01
4.6118713568e+01
3.5429497333e+01
3.1172772564e+01
3.2923034076e+01
3.7541001091e+01
5.6372087341e+01
4.4363083328e+01
2.7723580402e+01
3.9261611485e+01
5.3556345571e+01
2.9979708950e+01
3.7551484008e+01
4.1186148645e+01
3.2081435999e+01
5.1584021745e+01
5.4596136418e+01
3.6821110637e+01
4.9189607067e+01
4.9068709846e+01
4.9261769518e+01
3.5520994736e+01
5.3897765258e+01
5.6769039043e+01
2.3610340217e+01
4.3658542028e+01
5.0603055942e+01
4.4144253894e+01
4.4529262719e+01
4.2176391530e+01
3.3651376349e+01
2.5145220131e+01
3.0364895736e+01
5.4689377135e+01
5.6443378081e+01
4.7296913717e+01
4.6691070426e+01
2.7392521249e+01
3.2551380974e+01
5.4724311534e+01
4.7715140966e+01
2.7514694527e+01
2.2604729239e+01
2.5130944051e+01
2.5325054479e+01
2.3372169196e+01
2.5528622494e+01
2.8026915110e+01
2.6082527242e+01
4.9091023865e+01
5.1028181181e+01
5.2114686702e+01
4.8995540046e+01
5.4638960898e+01
5.2523080265e+01
5.1154946270e+01
5.2939541493e+01
5.2751780076e+01
5.4814495925e+01
5.3474448697e+01
5.3865884113e+01
5.2360344659e+01
5.3203090884e+01
5.1697780269e+01
5.3268820371e+01
5.3322809116e+01
5.2524098560e+01
5.3947812695e+01
5.2966593966e+01
5.3330049892e+01
5.3613568301e+01
5.3664294287e+01
5.3522576585e+01
5.3463485179e+01
5.3431831140e+01
5.3049213473e+01
5.3846102846e+01
5.2859187021e+01
5.2397201200e+01
5.2716904553e+01
5.3154419569e+01
5.3831642195e+01
5.2247370165e+01
5.1493214657e+01
5.2970548506e+01
5.2973094816e+01
5.2744200920e+01
5.2730750337e+01
5.2442218437e+01
5.2847332021e+01
5.2008796780e+01
5.2433100212e+01
5.3066653784e+01
5.3289284633e+01
5.3395974498e+01
5.2507361405e+01
5.2748304080e+01
5.2270491234e+01
5.2211503319e+01
5.2031329789e+01
5.2211479568e+01
5.2238848962e+01
5.1978906023e+01
5.2218343211e+01
5.2077753114e+01
5.1633850211e+01
5.1855889197e+01
5.1736328948e+01
5.1788728149e+01
5.1566420533e+01
5.1950671011e+01
5.1730585979e+01
5.1515801186e+01
5.2201859162e+01
5.2417586046e+01
5.2298772664e+01
5.2360947180e+01
5.2526905027e+01
5.2594824170e+01
5.2685812064e+01
5.2591057561e+01
5.2699481833e+01
5.2831020261e+01
5.2681684363e+01
5.2907418639e+01
5.2449481977e+01
5.2854298048e+01
5.3197480788e+01
5.3100674857e+01
5.2991690235e+01
5.2586404111e+01
5.2201618138e+01
5.2528656191e+01
5.2365229302e+01
5.2603705097e+01
5.2819702296e+01
5.2211801877e+01
5.2172766531e+01
5.1869681434e+01
5.2044745255e+01
5.2042698833e+01
5.1897560984e+01
5.2014827378e+01
5.1495573132e+01
5.0866802247e+01
5.1197249524e+01
5.1206981450e+01
5.2366249466e+01
5.2349549648e+01
5.2400187625e+01
5.2133906727e+01
5.2699111615e+01
5.2607954109e+01
5.2156331447e+01
5.2036544003e+01
5.1879001601e+01
5.1870950068e+01
5.1706145782e+01
5.1721262312e+01
5.1455581381e+01
5.1678146994e+01
5.1484264813e+01
5.1665945113e+01
5.1197884530e+01
5.1264786752e+01
5.2031766002e+01
5.1823659507e+01
5.0666022065e+01
5.2049835904e+01
5.1205758896e+01
5.0954652318e+01
5.1390599830e+01
5.0967670458e+01
5.0794268201e+01
5.1218220217e+01
5.1959308021e+01
5.3098369988e+01
5.1415163333e+01
5.1049184245e+01
5.0825993690e+01
5.0999714097e+01
5.2626739652e+01
5.1605940702e+01
5.1154992619e+01
5.0529029167e+01
5.2573524683e+01
5.1158417330e+01
5.2310994551e+01
5.1979780384e+01
5.2316562614e+01
5.0846811767e+01
5.2194387365e+01
5.3308586694e+01
5.3656104606e+01
5.2932831560e+01
5.3388197624e+01
5.3448709094e+01
5.3720985346e+01
5.2856399257e+01
5.3439083474e+01
5.3078311755e+01
5.4750433983e+01
5.4315712500e+01
5.4201198395e+01
5.3935663629e+01
5.1564158373e+01
5.0391214479e+01
5.0230961358e+01
5.0074783500e+01
5.0985349670e+01
5.3960337949e+01
5.2698677612e+01
5.3262544323e+01
5.4795122577e+01
4.9438398327e+01
4.9780290899e+01
5.1558855108e+01
5.4291073147e+01
5.0002287386e+01
5.1582811337e+01
5.1212740123e+01
5.0627085235e+01
5.1740303543e+01
5.4569185613e+01
5.4562886314e+01
5.0396590122e+01
5.1706943653e+01
4.9336918419e+01
5.0754841092e+01
4.9628917534e+01
5.6021811988e+01
5.6342712575e+01
5.4478606625e+01
5.5635177768e+01
5.4494614015e+01
5.0006767250e+01
4.7526966719e+01
5.4338746940e+01
5.5694482748e+01
4.9477139489e+01
4.9331627899e+01
4.7718148682e+01
4.9279082748e+01
5.4536066578e+01
5.2720398259e+01
5.8091576169e+01
5.1014757982e+01
5.3165832103e+01
5.3353967797e+01
5.0089844620e+01
5.6888211280e+01
5.9334271047e+01
5.6495784654e+01
4.7492924017e+01
5.9188963246e+01
5.8887194922e+01
4.6778693452e+01
6.5210878569e+01
4.3193290841e+01
6.0119481666e+01
4.5807365547e+01
4.5621710745e+01
4.0903955552e+01
4.7872461067e+01
4.3485998744e+01
4.6898173391e+01
5.0617884666e+01
3.9488408290e+01
4.3492075913e+01
5.4361660410e+01
5.6453916785e+01
5.6612366356e+01
6.3369680858e+01
4.6114665006e+01
4.9018780788e+01
6.0814455898e+01
6.1230693615e+01
6.3651228706e+01
6.1334270517e+01
6.1544321240e+01
4.8094343439e+01
6.6165495858e+01
6.3142815960e+01
4.0124042057e+01
2.6918271066e+01
2.9199293734e+01
2.7607054144e+01
2.4615951195e+01
2.6703717199e+01
6.1188434657e+01
5.7814557444e+01
3.8219237970e+01
3.2237423870e+01
3.7229730339e+01
3.4010474805e+01
3.8570151034e+01
4.0398715564e+01
4.1996304654e+01
4.0897868806e+01
5.5336537790e+01
5.3669539442e+01
5.8012821042e+01
5.6702300909e+01
5.1936729874e+01
5.5747792359e+01
5.4307938492e+01
6.0078958702e+01
3.0536400171e+01
2.8430522441e+01
3.0698608221e+01
5.9177212701e+01
5.5699198676e+01
5.7422924010e+01
3.4827926107e+01
3.4262315416e+01
3.3864298809e+01
3.0464372936e+01
4.2527388256e+01
5.6160379767e+01
5.4255099512e+01
6.0868810028e+01
5.8674190883e+01
6.3102532043e+01
6.1717703593e+01
6.5095962845e+01
6.0902838385e+01
6.4825638786e+01
3.4325589755e+01
3.1709023355e+01
6.3570144868e+01
5.9051336916e+01
5.9865262317e+01
6.2856868754e+01
3.2684901802e+01
3.7201526487e+01
5.7906502919e+01
3.5078135304e+01
3.6863293505e+01
3.9656660022e+01
4.2039558558e+01
3.6589834524e+01
3.5941180449e+01
3.7070701244e+01
3.3291263341e+01
6.9638933885e+01
6.3736732120e+01
6.3199656613e+01
6.0660290970e+01
5.9368043098e+01
6.3046750138e+01
6.2377993576e+01
6.9233322481e+01
6.7222100525e+01
6.7099562725e+01
6.6153586548e+01
6.4853260434e+01
6.6606639091e+01
6.4413303408e+01
6.6936795004e+01
7.1244544436e+01
7.0683830916e+01
6.8471213712e+01
6.4614692988e+01
7.8760163324e+01
8.4158706469e+01
6.9339988466e+01
6.3660704616e+01
6.8903234002e+01
6.6370229207e+01
6.6727918446e+01
6.8685168594e+01
7.0306040973e+01
7.7239575452e+01
7.2871416435e+01
7.0531484330e+01
7.1906988549e+01
7.6116277621e+01
7.5234525411e+01
7.3422106538e+01
7.2091374734e+01
7.5746587416e+01
8.2570554827e+01
7.9136634500e+01
7.1901326779e+01
7.1879425684e+01
7.8707236431e+01
7.9163333827e+01
8.0344769129e+01
7.7874880530e+01
7.4963008339e+01
7.5425769029e+01
7.6829535343e+01
7.4195291822e+01
8.5428951915e+01
8.1157449296e+01
8.2094557620e+01
8.4917484748e+01
8.1585908120e+01
8.0664363610e+01
9.3579693526e+01
8.1987206932e+01
7.3264385274e+01
7.2321056933e+01
7.5981501412e+01
7.1297537441e+01
6.9171495291e+01
8.8763346210e+01
9.2838717016e+01
8.6866481405e+01
8.9887469478e+01
9.2468228761e+01
8.9497503703e+01
9.0590684611e+01
8.3879612986e+01
8.0188705726e+01
8.4561303565e+01
7.8060318688e+01
8.2606138788e+01
8.5595453726e+01
7.9824793549e+01
8.6068901824e+01
8.7468976589e+01
8.3006628124e+01
7.4843596241e+01
7.3229431234e+01
8.3992239563e+01
8.1432971450e+01
7.9377607054e+01
8.9610176508e+01
7.7125274146e+01
8.1502596610e+01
8.6884441488e+01
8.7603851522e+01
9.4320670036e+01
9.1177388215e+01
8.7225104156e+01
8.5194981028e+01
9.0566572971e+01
7.5015942822e+01
7.7038327591e+01
7.5837625077e+01
9.4691158291e+01
9.2335911527e+01
9.1342706175e+01
9.3950181781e+01
9.1818886280e+01
8.8587823105e+01
8.6444183511e+01
6.8756980438e+01
7.0171223102e+01
6.7476573459e+01
6.8813928556e+01
7.1180924975e+01
7.0566919416e+01
6.8628175273e+01
6.7138749910e+01
6.8495743033e+01
7.0518555684e+01
7.1794930535e+01
5.3990377130e+01
2.9644006085e+01
2.1599118262e+01
3.5783525740e+01
6.5422586143e+01
9.2097740506e+01
9.5061646546e+01
7.3255766392e+01
5.7165990745e+01
5.3990377130e+01
6.8174784609e+01
7.2408936095e+01
6.0765019508e+01
4.0652799949e+01
5.2296716536e+01
4.1817191608e+01
6.9952913856e+01
6.1941299898e+01
6.6035816856e+01
6.9063849232e+01
6.6586977802e+01
6.1082580870e+01
6.5797051845e+01
6.4628682739e+01
6.7075812869e+01
6.4148006308e+01
5.7377698319e+01
6.1579785808e+01
6.3496781835e+01
6.4329344692e+01
6.3675998655e+01
5.9071358914e+01
5.9745746419e+01
6.1871031341e+01
6.4737221198e+01
6.6401733674e+01
6.6656795287e+01
6.3500702743e+01
5.7202436602e+01
6.0983043172e+01
5.9050500849e+01
5.9135154591e+01
6.3034977421e+01
6.1256874950e+01
5.5684037725e+01
5.7369758361e+01
5.8876043711e+01
5.9848955965e+01
5.2586620228e+01
6.2855631805e+01
6.1385512969e+01
5.5517247946e+01
5.7536479000e+01
5.5575500279e+01
4.7903784369e+01
5.9309529935e+01
5.6628628473e+01
5.8756180425e+01
5.4101285858e+01
5.1819548011e+01
5.5763428065e+01
5.4458194894e+01
4.6566481935e+01
5.3159119294e+01
5.4516562074e+01
5.0947080750e+01
5.2910151765e+01
5.0507460604e+01
4.9425432559e+01
5.2702158863e+01
5.1569385711e+01
4.7149574676e+01
4.9767070706e+01
4.9452421843e+01
4.7499799878e+01
4.9541948121e+01
4.4860487988e+01
4.3851677646e+01
4.7055620615e+01
5.5578183938e+01
4.4535008783e+01
3.5730598846e+01
4.8290658633e+01
3.8773895227e+01
5.0535919453e+01
4.0426099053e+01
4.0295543417e+01
4.1116663958e+01
4.8468166552e+01
4.3954012792e+01
4.7779720007e+01
4.5907937234e+01
4.3514869369e+01
4.4734785767e+01
4.1857512232e+01
3.8580546044e+01
3.5927917581e+01
3.7902538201e+01
3.9352302149e+01
5.4784280534e+01
4.1504203959e+01
2.5621562173e+01
4.2360918722e+01
5.4387328832e+01
5.1598903601e+01
5.2477504273e+01
5.0471214291e+01
5.5181232236e+01
5.0180332960e+01
5.2908331654e+01
4.6364821263e+01
3.3220635853e+01
4.1956001949e+01
3.7760982004e+01
4.4927459170e+01
3.9440852479e+01
4.5554720459e+01
4.2949848329e+01
3.6036673939e+01
3.7238439734e+01
3.2705541401e+01
3.5192571760e+01
2.7632784129e+01
3.2390528208e+01
2.8638395107e+01
3.0221435041e+01
2.9956243282e+01
2.6627173151e+01
3.0585515735e+01
3.1210931202e+01
2.8519781315e+01
3.4964927780e+01
3.4826437837e+01
3.2687302466e+01
3.1165654275e+01
3.3577774735e+01
3.4208950656e+01
4.3728263858e+01
4.4205670791e+01
3.9326559823e+01
4.7605930254e+01
4.1544872325e+01
3.9750695547e+01
4.6386059925e+01
4.5172315324e+01
4.5922927934e+01
4.4921585254e+01
4.2136204589e+01
4.7284019126e+01
5.1753632941e+01
5.2353280208e+01
4.9086790012e+01
4.9758302263e+01
4.4050323789e+01
4.3395561906e+01
4.4657188915e+01
4.3210974335e+01
4.1607580132e+01
4.2263807502e+01
4.1220227737e+01
4.2580783553e+01
4.1660663304e+01
4.1003599930e+01
4.0877605404e+01
3.9312280772e+01
4.1129106847e+01
4.1308310821e+01
4.0497139722e+01
4.1509572529e+01
4.0794613388e+01
4.1006574251e+01
4.1192917643e+01
4.0785902148e+01
4.0435084619e+01
4.1386921625e+01
4.0962764476e+01
4.0246994550e+01
4.0670743340e+01
4.0622472419e+01
4.1770759685e+01
4.1003154421e+01
4.0815821764e+01
4.0719538984e+01
4.0874487790e+01
4.1328167113e+01
4.0049844729e+01
4.0778776674e+01
4.1205601092e+01
4.1140450898e+01
4.1219061562e+01
4.1253147719e+01
4.1099144530e+01
4.0944515507e+01
4.1099602459e+01
4.0870322249e+01
4.1030097783e+01
4.0787981392e+01
4.0877510684e+01
4.0721872370e+01
4.1045233047e+01
4.0311459090e+01
4.0547700723e+01
4.0551605289e+01
4.0334157738e+01
4.0476927383e+01
4.1144861826e+01
4.1470170777e+01
4.1436242548e+01
4.1264492998e+01
4.0588237911e+01
4.0302990517e+01
4.0661438110e+01
4.0449526478e+01
4.0490743703e+01
4.0270317490e+01
4.0086563131e+01
4.0087874430e+01
4.0739788963e+01
4.0147155785e+01
4.0184792038e+01
3.9440584430e+01
4.1069883462e+01
4.0702575705e+01
3.9964344588e+01
4.0135107580e+01
4.0298375466e+01
3.9606040579e+01
4.0457517473e+01
3.9857974294e+01
3.9775039910e+01
4.1116290614e+01
4.0899930834e+01
4.1289633248e+01
4.0682641335e+01
4.0459371435e+01
4.0086059109e+01
4.0872260816e+01
4.0946353761e+01
4.1247822985e+01
4.0935162291e+01
4.0887530557e+01
4.0406337732e+01
4.0233984216e+01
4.0084915628e+01
4.0262127008e+01
3.9878851771e+01
4.1579607688e+01
4.0463906317e+01
3.9608972210e+01
4.1850123177e+01
4.1509303494e+01
3.9854559387e+01
3.9591202026e+01
3.9869203660e+01
4.1174817627e+01
4.0212031164e+01
4.0455941958e+01
3.8955194616e+01
3.9760592690e+01
4.1959703071e+01
4.1483971685e+01
4.1594084864e+01
4.0538126332e+01
4.0301159044e+01
3.9885812137e+01
4.0140668759e+01
3.9249797572e+01
4.1685283159e+01
4.1834444146e+01
4.1728142409e+01
4.1793300758e+01
4.2282696294e+01
4.2151165498e+01
4.1957454198e+01
4.0449186519e+01
4.0120682551e+01
3.9174301362e+01
4.1509740832e+01
3.9390544678e+01
3.9997046046e+01
4.0467455418e+01
3.9489553465e+01
3.9579382529e+01
4.1878375399e+01
4.2153190931e+01
4.2187419990e+01
4.0331274893e+01
4.0067873869e+01
3.9461877773e+01
4.1495446740e+01
4.0410865976e+01
3.9256697090e+01
3.9693339553e+01
4.2837381286e+01
4.2181249732e+01
3.9799029670e+01
4.1414399719e+01
3.9497673837e+01
4.2550610413e+01
3.8674351871e+01
4.2380612049e+01
4.2048525113e+01
4.1909822930e+01
4.2057542097e+01
4.0749187482e+01
3.8474716671e+01
3.8764664736e+01
3.9111299776e+01
4.2291519649e+01
4.2786450717e+01
4.1014078272e+01
4.1117461853e+01
3.8980082994e+01
3.9300212095e+01
3.9102917124e+01
3.9358670177e+01
3.9324346393e+01
3.9502721678e+01
3.9594672071e+01
4.2707604173e+01
4.2946768638e+01
4.3528288140e+01
3.9882971439e+01
3.9089927483e+01
4.2391401456e+01
4.0772310963e+01
3.7192349752e+01
3.8609417384e+01
3.8875119793e+01
3.9986710396e+01
4.0551293137e+01
3.7982234401e+01
3.8421435416e+01
3.7717603947e+01
3.8840758994e+01
3.8452389034e+01
3.8058674995e+01
4.1896334295e+01
2.8691322001e+01
3.8197428248e+01
3.9781528793e+01
3.7369845255e+01
4.4680725970e+01
3.7197098886e+01
4.3851536159e+01
4.0895197506e+01
4.3310060106e+01
3.8860864728e+01
3.5507189032e+01
4.5156580921e+01
4.4151956943e+01
4.1673624818e+01
4.2321645798e+01
3.5716576499e+01
4.1542692098e+01
3.4779329736e+01
4.0609430062e+01
3.2959030150e+01
3.4758707963e+01
5.1414699021e+01
4.7083054672e+01
4.6118713568e+01
3.5429497333e+01
3.1172772564e+01
3.2923034076e+01
3.7541001091e+01
5.6372087341e+01
4.4363083328e+01
2.7723580402e+01
3.9261611485e+01
5.3556345571e+01
2.9979708950e+01
3.7551484008e+01
4.1186148645e+01
3.2081435999e+01
5.1584021745e+01
5.4596136418e+01
3.6821110637e+01
4.9189607067e+01
4.9068709846e+01
4.9261769518e+01
3.5520994736e+01
5.3897765258e+01
5.6769039043e+01
2.3610340217e+01
4.3658542028e+01
5.0603055942e+01
4.4144253894e+01
4.4529262719e+01
4.2176391530e+01
3.3651376349e+01
2.5145220131e+01
3.0364895736e+01
5.4689377135e+01
5.6443378081e+01
4.7296913717e+01
4.6691070426e+01
2.7392521249e+01
3.2551380974e+01
5.4724311534e+01
4.7715140966e+01
2.7514694527e+01
2.2604729239e+01
2.5130944051e+01
2.5325054479e+01
2.3372169196e+01
2.5528622494e+01
2.8026915110e+01
2.6082527242e+01
4.9091023865e+01
5.1028181181e+01
5.2114686702e+01
4.8995540046e+01
5.4638960898e+01
5.2523080265e+01
5.1154946270e+01
5.2939541493e+01
5.2751780076e+01
5.4814495925e+01
5.3474448697e+01
5.3865884113e+01
5.2360344659e+01
5.3203090884e+01
5.1697780269e+01
5.3268820371e+01
5.3322809116e+01
5.2524098560e+01
5.3947812695e+01
5.2966593966e+01
5.3330049892e+01
5.3613568301e+01
5.3664294287e+01
5.3522576585e+01
5.3463485179e+01
5.3431831140e+01
5.3049213473e+01
5.3846102846e+01
5.2859187021e+01
5.2397201200e+01
5.2716904553e+01
5.3154419569e+01
5.3831642195e+01
5.2247370165e+01
5.1493214657e+01
5.2970548506e+01
5.2973094816e+01
5.2744200920e+01
5.2730750337e+01
5.2442218437e+01
5.2847332021e+01
5.2008796780e+01
5.2433100212e+01
5.3066653784e+01
5.3289284633e+01
5.3395974498e+01
5.2507361405e+01
5.2748304080e+01
5.2270491234e+01
5.2211503319e+01
5.2031329789e+01
5.2211479568e+01
5.2238848962e+01
5.1978906023e+01
5.2218343211e+01
5.2077753114e+01
5.1633850211e+01
5.1855889197e+01
5.1736328948e+01
5.1788728149e+01
5.1566420533e+01
5.1950671011e+01
5.1730585979e+01
5.1515801186e+01
5.2201859162e+01
5.2417586046e+01
5.2298772664e+01
5.2360947180e+01
5.2526905027e+01
5.2594824170e+01
5.2685812064e+01
5.2591057561e+01
5.2699481833e+01
5.2831020261e+01
5.2681684363e+01
5.2907418639e+01
5.2449481977e+01
5.2854298048e+01
5.3197480788e+01
5.3100674857e+01
5.2991690235e+01
5.2586404111e+01
5.2201618138e+01
5.2528656191e+01
5.2365229302e+01
5.2603705097e+01
5.2819702296e+01
5.2211801877e+01
5.2172766531e+01
5.1869681434e+01
5.2044745255e+01
5.2042698833e+01
5.1897560984e+01
5.2014827378e+01
5.1495573132e+01
5.0866802247e+01
5.1197249524e+01
5.1206981450e+01
5.2366249466e+01
5.2349549648e+01
5.2400187625e+01
5.2133906727e+01
5.2699111615e+01
5.2607954109e+01
5.2156331447e+01
5.2036544003e+01
5.1879001601e+01
5.1870950068e+01
5.1706145782e+01
5.1721262312e+01
5.1455581381e+01
5.1678146994e+01
5.1484264813e+01
5.1665945113e+01
5.1197884530e+01
5.1264786752e+01
5.2031766002e+01
5.1823659507e+01
5.0666022065e+01
5.2049835904e+01
5.1205758896e+01
5.0954652318e+01
5.1390599830e+01
5.0967670458e+01
5.0794268201e+01
5.1218220217e+01
5.1959308021e+01
5.3098369988e+01
5.1415163333e+01
5.1049184245e+01
5.0825993690e+01
5.0999714097e+01
5.2626739652e+01
5.1605940702e+01
5.1154992619e+01
5.0529029167e+01
5.2573524683e+01
5.1158417330e+01
5.2310994551e+01
5.1979780384e+01
5.2316562614e+01
5.0846811767e+01
5.2194387365e+01
5.3308586694e+01
5.3656104606e+01
5.2932831560e+01
5.3388197624e+01
5.3448709094e+01
5.3720985346e+01
5.2856399257e+01
5.3439083474e+01
5.3078311755e+01
5.4750433983e+01
5.4315712500e+01
5.4201198395e+01
5.3935663629e+01
5.1564158373e+01
5.0391214479e+01
5.0230961358e+01
5.0074783500e+01
5.0985349670e+01
5.3960337949e+01
5.2698677612e+01
5.3262544323e+01
5.4795122577e+01
4.9438398327e+01
4.9780290899e+01
5.1558855108e+01
5.4291073147e+01
5.0002287386e+01
5.1582811337e+01
5.1212740123e+01
5.0627085235e+01
5.1740303543e+01
5.4569185613e+01
5.4562886314e+01
5.0396590122e+01
5.1706943653e+01
4.9336918419e+01
5.0754841092e+01
4.9628917534e+01
5.6021811988e+01
5.6342712575e+01
5.4478606625e+01
5.5635177768e+01
5.4494614015e+01
5.0006767250e+01
4.7526966719e+01
5.4338746940e+01
5.5694482748e+01
4.9477139489e+01
4.9331627899e+01
4.7718148682e+01
4.9279082748e+01
5.4536066578e+01
5.2720398259e+01
5.8091576169e+01
5.1014757982e+01
5.3165832103e+01
5.3353967797e+01
5.0089844620e+01
5.6888211280e+01
5.9334271047e+01
5.6495784654e+01
4.7492924017e+01
5.9188963246e+01
5.8887194922e+01
4.6778693452e+01
6.5210878569e+01
4.3193290841e+01
6.0119481666e+01
4.5807365547e+01
4.5621710745e+01
4.0903955552e+01
4.7872461067e+01
4.3485998744e+01
4.6898173391e+01
5.0617884666e+01
3.9488408290e+01
4.3492075913e+01
5.4361660410e+01
5.6453916785e+01
5.6612366356e+01
6.3369680858e+01
4.6114665006e+01
4.9018780788e+01
6.0814455898e+01
6.1230693615e+01
6.3651228706e+01
6.1334270517e+01
6.1544321240e+01
4.8094343439e+01
6.6165495858e+01
6.3142815960e+01
4.0124042057e+01
2.6918271066e+01
2.9199293734e+01
2.7607054144e+01
2.4615951195e+01
2.6703717199e+01
6.1188434657e+01
5.7814557444e+01
3.8219237970e+01
3.2237423870e+01
3.7229730339e+01
3.4010474805e+01
3.8570151034e+01
4.0398715564e+01
4.1996304654e+01
4.0897868806e+01
5.5336537790e+01
5.3669539442e+01
5.8012821042e+01
5.6702300909e+01
5.1936729874e+01
5.5747792359e+01
5.4307938492e+01
6.0078958702e+01
3.0536400171e+01
2.8430522441e+01
3.0698608221e+01
5.9177212701e+01
5.5699198676e+01
5.7422924010e+01
3.4827926107e+01
3.4262315416e+01
3.3864298809e+01
3.0464372936e+01
4.2527388256e+01
5.6160379767e+01
5.4255099512e+01
6.0868810028e+01
5.8674190883e+01
6.3102532043e+01
6.1717703593e+01
6.5095962845e+01
6.0902838385e+01
6.4825638786e+01
3.4325589755e+01
3.1709023355e+01
6.3570144868e+01
5.9051336916e+01
5.9865262317e+01
6.2856868754e+01
3.2684901802e+01
3.7201526487e+01
5.7906502919e+01
3.5078135304e+01
3.6863293505e+01
3.9656660022e+01
4.2039558558e+01
3.6589834524e+01
3.5941180449e+01
3.7070701244e+01
3.3291263341e+01
6.9638933885e+01
6.3736732120e+01
6.3199656613e+01
6.0660290970e+01
5.9368043098e+01
6.3046750138e+01
6.2377993576e+01
6.9233322481e+01
6.7222100525e+01
6.7099562725e+01
6.6153586548e+01
6.4853260434e+01
6.6606639091e+01
6.4413303408e+01
6.6936795004e+01
7.1244544436e+01
7.0683830916e+01
6.8471213712e+01
6.4614692988e+01
7.8760163324e+01
8.4158706469e+01
6.9339988466e+01
6.3660704616e+01
6.8903234002e+01
6.6370229207e+01
6.6727918446e+01
6.8685168594e+01
7.0306040973e+01
7.7239575452e+01
7.2871416435e+01
7.0531484330e+01
7.1906988549e+01
7.6116277621e+01
7.5234525411e+01
7.3422106538e+01
7.2091374734e+01
7.5746587416e+01
8.2570554827e+01
7.9136634500e+01
7.1901326779e+01
7.1879425684e+01
7.8707236431e+01
7.9163333827e+01
8.0344769129e+01
7.7874880530e+01
7.4963008339e+01
7.5425769029e+01
7.6829535343e+01
7.4195291822e+01
8.5428951915e+01
8.1157449296e+01
8.2094557620e+01
8.4917484748e+01
8.1585908120e+01
8.0664363610e+01
9.3579693526e+01
8.1987206932e+01
7.3264385274e+01
7.2321056933e+01
7.5981501412e+01
7.1297537441e+01
6.9171495291e+01
8.8763346210e+01
9.2838717016e+01
8.6866481405e+01
8.9887469478e+01
9.2468228761e+01
8.9497503703e+01
9.0590684611e+01
8.3879612986e+01
8.0188705726e+01
8.4561303565e+01
7.8060318688e+01
8.2606138788e+01
8.5595453726e+01
7.9824793549e+01
8.6068901824e+01
8.7468976589e+01
8.3006628124e+01
7.4843596241e+01
7.3229431234e+01
8.3992239563e+01
8.1432971450e+01
7.9377607054e+01
8.9610176508e+01
7.7125274146e+01
8.1502596610e+01
8.6884441488e+01
8.7603851522e+01
9.4320670036e+01
9.1177388215e+01
8.7225104156e+01
8.5194981028e+01
9.0566572971e+01
7.5015942822e+01
7.7038327591e+01
7.5837625077e+01
9.4691158291e+01
9.2335911527e+01
9.1342706175e+01
9.3950181781e+01
9.1818886280e+01
8.8587823105e+01
8.6444183511e+01
6.8756980438e+01
7.0171223102e+01
6.7476573459e+01
6.8813928556e+01
7.1180924975e+01
7.0566919416e+01
6.8628175273e+01
6.7138749910e+01
6.8495743033e+01
7.0518555684e+01
7.1794930535e+01
5.3990377130e+01
2.9644006085e+01
2.1599118262e+01
3.5783525740e+01
6.5422586143e+01
9.2097740506e+01
9.5061646546e+01
7.3255766392e+01
5.7165990745e+01
5.3990377130e+01
6.8174784609e+01
7.2408936095e+01
6.0765019508e+01
4.0652799949e+01
5.2296716536e+01
4.1817191608e+01
6.9952913856e+01
6.1941299898e+01
6.6035816856e+01
6.9063849232e+01
6.6586977802e+01
6.1082580870e+01
6.5797051845e+01
6.4628682739e+01
6.7075812869e+01
6.4148006308e+01
5.7377698319e+01
6.1579785808e+01
6.3496781835e+01
6.4329344692e+01
6.3675998655e+01
5.9071358914e+01
5.9745746419e+01
6.1871031341e+01
6.4737221198e+01
6.6401733674e+01
6.6656795287e+01
6.3500702743e+01
5.7202436602e+01
6.0983043172e+01
5.9050500849e+01
5.9135154591e+01
6.3034977421e+01
6.1256874950e+01
5.5684037725e+01
5.7369758361e+01
5.8876043711e+01
5.9848955965e+01
5.2586620228e+01
6.2855631805e+01
6.1385512969e+01
5.5517247946e+01
5.7536479000e+01
5.5575500279e+01
4.7903784369e+01
5.9309529935e+01
5.6628628473e+01
5.8756180425e+01
5.4101285858e+01
5.1819548011e+01
5.5763428065e+01
5.4458194894e+01
4.6566481935e+01
5.3159119294e+01
5.4516562074e+01
5.0947080750e+01
5.2910151765e+01
5.0507460604e+01
4.9425432559e+01
5.2702158863e+01
5.1569385711e+01
4.7149574676e+01
4.9767070706e+01
4.9452421843e+01
4.7499799878e+01
4.9541948121e+01
4.4860487988e+01
4.3851677646e+01
4.7055620615e+01
5.5578183938e+01
4.4535008783e+01
3.5730598846e+01
4.8290658633e+01
3.8773895227e+01
5.0535919453e+01
4.0426099053e+01
4.0295543417e+01
4.1116663958e+01
4.8468166552e+01
4.3954012792e+01
4.7779720007e+01
4.5907937234e+01
4.3514869369e+01
4.4734785767e+01
4.1857512232e+01
3.8580546044e+01
3.5927917581e+01
3.7902538201e+01
3.9352302149e+01
5.4784280534e+01
4.1504203959e+01
2.5621562173e+01
4.2360918722e+01
5.4387328832e+01
5.1598903601e+01
5.2477504273e+01
5.0471214291e+01
5.5181232236e+01
5.0180332960e+01
5.2908331654e+01
4.6364821263e+01
3.3220635853e+01
4.1956001949e+01